LAMMPS (22 Jul 2025 - Update 2)
Reading data file ...
  orthogonal box = (0 0 0) to (31.042817 31.042817 31.042817)
  1 by 1 by 1 MPI processor grid
  reading atoms ...
  3000 atoms
  read_data CPU = 0.003 seconds
NequIP/Allegro is using input precision d and output precision d
NequIP/Allegro: Loading model from ../outputs/2025-12-23/10-46-15/lammps_allegro.nequip.pt2
Type mapping:
NequIP/Allegro type | NequIP/Allegro name | LAMMPS type | LAMMPS name
0 | H | 2 | H
1 | O | 1 | O
Neighbor list info ...
  update: every = 1 steps, delay = 0 steps, check = yes
  max neighbors/atom: 2000, page size: 100000
  master list distance cutoff = 7
  ghost atom cutoff = 7
  binsize = 3.5, bins = 9 9 9
  1 neighbor lists, perpetual/occasional/extra = 1 0 0
  (1) pair allegro, perpetual
      attributes: full, newton on, ghost
      pair build: full/bin/ghost
      stencil: full/ghost/bin/3d
      bin: standard
Setting up cg style minimization ...
  Unit style    : metal
  Current step  : 0
Per MPI rank memory allocation (min/avg/max) = 7.837 | 7.837 | 7.837 Mbytes
   Step          Temp          E_pair         E_mol          TotEng         Press     
         0   0              602361.24      0              602361.24      1.6494396e+08
       181   0              8549.9374      0              8549.9374      10171377     
Loop time of 107.985 on 1 procs for 181 steps with 3000 atoms

210.0% CPU use with 1 MPI tasks x no OpenMP threads

Minimization stats:
  Stopping criterion = energy tolerance
  Energy initial, next-to-last, final = 
      602361.240469642   8550.49467794697   8549.93742527801
  Force two-norm initial, final = 20512.256 1525.8365
  Force max component initial, final = 1063.9774 592.79201
  Final line search alpha, max atom move = 1.6976853e-05 0.010063743
  Iterations, force evaluations = 181 293

MPI task timing breakdown:
Section |  min time  |  avg time  |  max time  |%varavg| %total
---------------------------------------------------------------
Pair    | 107.85     | 107.85     | 107.85     |   0.0 | 99.87
Neigh   | 0.12144    | 0.12144    | 0.12144    |   0.0 |  0.11
Comm    | 0.0045505  | 0.0045505  | 0.0045505  |   0.0 |  0.00
Output  | 0          | 0          | 0          |   0.0 |  0.00
Modify  | 0          | 0          | 0          |   0.0 |  0.00
Other   |            | 0.01194    |            |       |  0.01

Nlocal:           3000 ave        3000 max        3000 min
Histogram: 1 0 0 0 0 0 0 0 0 0
Nghost:           5687 ave        5687 max        5687 min
Histogram: 1 0 0 0 0 0 0 0 0 0
Neighs:              0 ave           0 max           0 min
Histogram: 1 0 0 0 0 0 0 0 0 0
FullNghs:       417304 ave      417304 max      417304 min
Histogram: 1 0 0 0 0 0 0 0 0 0

Total # of neighbors = 417304
Ave neighs/atom = 139.10133
Neighbor list builds = 8
Dangerous builds = 0
>>> Start Heating Phase (5 ps)...
Setting up Verlet run ...
  Unit style    : metal
  Current step  : 181
  Time step     : 0.0005
Per MPI rank memory allocation (min/avg/max) = 6.716 | 6.716 | 6.716 Mbytes
   Step          Temp          PotEng         KinEng         TotEng         Press          Volume    
       181   50             8549.9375      19.382559      8569.32        10172069       29914.612    
       200   21986.22       7826.4193      8522.984       16349.403      9886779.7      29914.612    
       300   30155.784     -2700.7245      11689.925      8989.2007      6149006.1      29914.612    
       400   11700.175     -6840.0553      4535.5864     -2304.4689      4724259.1      29914.612    
       500   28257.644     -9171.6236      10954.109      1782.4852      4218985.2      29914.612    
       600   6923.3413     -9574.3059      2683.8414     -6890.4645      3677742.5      29914.612    
       700   35188.543     -10235.895      13640.88       3404.9851      3857262.7      29914.612    
       800   4699.0342     -11102.713      1821.5861     -9281.1268      3173875.6      29914.612    
       900   4137.5574     -10766.697      1603.929      -9162.7681      3196231.8      29914.612    
      1000   3550.0672     -11274.016      1376.1877     -9897.8283      3010448.4      29914.612    
      1100   3295.6244     -11857.021      1277.5527     -10579.469      2857263.2      29914.612    
      1200   3531.3755     -11912.105      1368.9419     -10543.164      2876792.8      29914.612    
      1300   8107.4605     -11883.827      3142.8666     -8740.9606      2933009.8      29914.612    
      1400   3556.7592     -11833.035      1378.7819     -10454.254      2849644.1      29914.612    
      1500   2673.0247     -12279.018      1036.2012     -11242.817      2687922.9      29914.612    
      1600   2568.1768     -12455.705      995.55674     -11460.148      2604764.2      29914.612    
      1700   2475.0367     -12476.62       959.45089     -11517.169      2560986.2      29914.612    
      1800   2179.6173     -12614.872      844.9312      -11769.94       2526748.8      29914.612    
      1900   2301.8979     -12548.281      892.33342     -11655.948      2509272.3      29914.612    
      2000   2448.8604     -12776.508      949.30359     -11827.205      2439653.9      29914.612    
      2100   3931.7022     -13309.474      1524.129      -11785.345      2469164.4      29914.612    
      2200   3378.8962     -12495.015      1309.8331     -11185.181      2528494.6      29914.612    
      2300   4032.0486     -12585.68       1563.0284     -11022.651      2504621.4      29914.612    
      2400   2535.7538     -12928.856      982.98793     -11945.868      2384515.9      29914.612    
      2500   3966.5118     -12816.164      1537.623      -11278.541      2453442.5      29914.612    
      2600   3165.8247     -13093.73       1227.2356     -11866.494      2330518.5      29914.612    
      2700   2691.0425     -12956.631      1043.1858     -11913.446      2383259.9      29914.612    
      2800   2946.3628     -13033.228      1142.161      -11891.067      2347783        29914.612    
      2900   2494.5131     -12815.931      967.00095     -11848.93       2414179.9      29914.612    
      3000   2246.8444     -13168.601      870.99187     -12297.609      2268942        29914.612    
      3100   2173.8017     -13314.074      842.67679     -12471.397      2221372.4      29914.612    
      3200   2564.5756     -13009.124      994.16074     -12014.964      2329834.5      29914.612    
      3300   1882.8087     -13335.218      729.873       -12605.345      2161224.6      29914.612    
      3400   1789.3806     -13530.544      693.65548     -12836.889      2110900.2      29914.612    
      3500   2205.618      -13396.761      855.01041     -12541.75       2154949        29914.612    
      3600   3772.3161     -13207.006      1462.3428     -11744.663      2243234.7      29914.612    
      3700   2505.1344     -13595.289      971.1183      -12624.171      2211048.4      29914.612    
      3800   2545.8838     -13585.103      986.91483     -12598.188      2135963.7      29914.612    
      3900   1690.9744     -13586.926      655.5082      -12931.418      2090211.4      29914.612    
      4000   2040.4019     -13653.614      790.96419     -12862.649      2081341.8      29914.612    
      4100   1812.4031     -13723.713      702.5802      -13021.132      2066236.3      29914.612    
      4200   2766.2752     -13509.824      1072.3498     -12437.474      2139233.5      29914.612    
      4300   2481.0005     -13725.195      961.76275     -12763.433      2082679.1      29914.612    
      4400   3423.6209     -13689.606      1327.1707     -12362.435      2083779.7      29914.612    
      4500   1941.4717     -13794.631      752.61377     -13042.017      1997763        29914.612    
      4600   2018.8507     -13769.581      782.60985     -12986.971      2012836.4      29914.612    
      4700   2330.1817     -13922.823      903.29766     -13019.525      1964555.4      29914.612    
      4800   1935.382      -13991.028      750.25312     -13240.775      1928873.8      29914.612    
      4900   2056.3839     -13816.905      797.15962     -13019.746      1976495.9      29914.612    
      5000   2161.0465     -13774.577      837.73223     -12936.845      2015329.5      29914.612    
      5100   2146.2002     -13761.609      831.97703     -12929.632      1995528.3      29914.612    
      5200   1742.0806     -14098.942      675.31959     -13423.623      1906936.8      29914.612    
      5300   3033.553      -13822.627      1175.9604     -12646.667      2000104.5      29914.612    
      5400   2156.0441     -13723.619      835.79302     -12887.826      1989685.6      29914.612    
      5500   1779.6889     -14035.611      689.89848     -13345.712      1880672.2      29914.612    
      5600   3456.5009     -13849.036      1339.9166     -12509.119      1977026.4      29914.612    
      5700   1980.3662     -13768.188      767.69129     -13000.497      1963709.2      29914.612    
      5800   17522.698     -13576.756      6792.6946     -6784.0616      2230524.1      29914.612    
      5900   2535.4498     -13765.75       982.87011     -12782.879      1993117.5      29914.612    
      6000   2325.9299     -13931.93       901.64948     -13030.28       1922179.8      29914.612    
      6100   2372.1896     -14007.106      919.58207     -13087.524      1940275.1      29914.612    
      6200   2163.7223     -14231.564      838.76948     -13392.795      1862667        29914.612    
      6300   1908.5475     -14342.637      739.8507      -13602.787      1811138.8      29914.612    
      6400   1760.1342     -14443.585      682.31811     -13761.267      1767824.2      29914.612    
      6500   1801.2863     -14315.937      698.27077     -13617.667      1832800.1      29914.612    
      6600   1859.6724     -14385.198      720.9042      -13664.294      1792285        29914.612    
      6700   1642.2052     -14360.669      636.60279     -13724.066      1797680        29914.612    
      6800   1968.637      -14392.547      763.14446     -13629.402      1779793.4      29914.612    
      6900   2006.6645     -14398.16       777.88585     -13620.274      1769447.9      29914.612    
      7000   2253.8387     -14366.773      873.7032      -13493.07       1833464.5      29914.612    
      7100   2120.752      -14437.279      822.11199     -13615.167      1794478.8      29914.612    
      7200   2224.9046     -14476.68       862.4869      -13614.193      1769546.5      29914.612    
      7300   3072.3079     -14507.598      1190.9838     -13316.614      1781952.9      29914.612    
      7400   1784.6132     -14601.125      691.80739     -13909.317      1721713.5      29914.612    
      7500   1654.4495     -14564.757      641.3493      -13923.407      1734149.6      29914.612    
      7600   2052.576      -14213.415      795.6835      -13417.732      1803429.8      29914.612    
      7700   2033.9423     -14222.119      788.46012     -13433.659      1846822.3      29914.612    
      7800   2213.7192     -14435.69       858.15085     -13577.539      1786193.3      29914.612    
      7900   1727.2846     -14536.536      669.58389     -13866.952      1734801.6      29914.612    
      8000   2410.8625     -14375.023      934.57368     -13440.449      1795260.9      29914.612    
      8100   1774.2557     -14596.047      687.7923      -13908.255      1744067.2      29914.612    
      8200   2726.1267     -14494.436      1056.7862     -13437.65       1772294.2      29914.612    
      8300   2104.2256     -14530.573      815.70552     -13714.867      1759640.7      29914.612    
      8400   1778.7213     -14771.905      689.52339     -14082.382      1687154.6      29914.612    
      8500   2169.6459     -14576.456      841.06579     -13735.39       1719807.6      29914.612    
      8600   2382.1321     -14521.082      923.43631     -13597.646      1728921.8      29914.612    
      8700   2395.1758     -14542.452      928.49272     -13613.959      1776781.6      29914.612    
      8800   2729.4491     -14551.369      1058.0741     -13493.295      1745960.1      29914.612    
      8900   2195.4687     -14749.801      851.07603     -13898.725      1696599.6      29914.612    
      9000   2707.1607     -14638.232      1049.434      -13588.798      1704739.5      29914.612    
      9100   2411.9289     -14746.598      934.98708     -13811.611      1700578.7      29914.612    
      9200   1822.399      -14930.626      706.4551      -14224.171      1624085.6      29914.612    
      9300   1740.3827     -14877.968      674.66139     -14203.306      1604011.8      29914.612    
      9400   1923.3755     -14892.157      745.59876     -14146.558      1595229.3      29914.612    
      9500   2056.3943     -14976.805      797.16366     -14179.641      1606891.9      29914.612    
      9600   2099.1197     -14957.766      813.72622     -14144.04       1588813.2      29914.612    
      9700   1965.8075     -14916.267      762.0476      -14154.22       1588751        29914.612    
      9800   1833.7436     -14885.22       710.85287     -14174.367      1594102        29914.612    
      9900   2017.5818     -14940.947      782.11796     -14158.829      1573976.8      29914.612    
     10000   2260.4075     -15103.778      876.24961     -14227.529      1562979.3      29914.612    
     10100   3037.9957     -15043.712      1177.6826     -13866.029      1574598.2      29914.612    
     10181   1736.009      -15094.589      672.96592     -14421.623      1529778.8      29914.612    
Loop time of 4214.42 on 1 procs for 10000 steps with 3000 atoms

Performance: 0.103 ns/day, 234.134 hours/ns, 2.373 timesteps/s, 7.118 katom-step/s
202.9% CPU use with 1 MPI tasks x no OpenMP threads

MPI task timing breakdown:
Section |  min time  |  avg time  |  max time  |%varavg| %total
---------------------------------------------------------------
Pair    | 4154.4     | 4154.4     | 4154.4     |   0.0 | 98.58
Neigh   | 59.322     | 59.322     | 59.322     |   0.0 |  1.41
Comm    | 0.34735    | 0.34735    | 0.34735    |   0.0 |  0.01
Output  | 0.0065617  | 0.0065617  | 0.0065617  |   0.0 |  0.00
Modify  | 0.28787    | 0.28787    | 0.28787    |   0.0 |  0.01
Other   |            | 0.08322    |            |       |  0.00

Nlocal:           3000 ave        3000 max        3000 min
Histogram: 1 0 0 0 0 0 0 0 0 0
Nghost:           6304 ave        6304 max        6304 min
Histogram: 1 0 0 0 0 0 0 0 0 0
Neighs:              0 ave           0 max           0 min
Histogram: 1 0 0 0 0 0 0 0 0 0
FullNghs:       409994 ave      409994 max      409994 min
Histogram: 1 0 0 0 0 0 0 0 0 0

Total # of neighbors = 409994
Ave neighs/atom = 136.66467
Neighbor list builds = 3423
Dangerous builds = 983
>>> Start Equilibration Phase (10 ps)...
Setting up Verlet run ...
  Unit style    : metal
  Current step  : 10181
  Time step     : 0.0005
Per MPI rank memory allocation (min/avg/max) = 7.109 | 7.109 | 7.109 Mbytes
   Step          Temp          PotEng         KinEng         TotEng         Press          Volume    
     10181   1736.009      -15094.589      672.96592     -14421.623      1529778.9      29914.612    
     10200   2659.1988     -14624.626      1030.8415     -13593.785      1627588.2      29914.612    
     10300   6240.8351     -13428.474      2419.2671     -11009.207      1954865.8      29914.612    
     10400   7604.6257     -12980.191      2947.9421     -10032.249      2024913.2      29914.612    
     10500   7858.7272     -13085.78       3046.4448     -10039.335      1995654.9      29914.612    
     10600   7292.3831     -13301.174      2826.9009     -10474.273      1943744.3      29914.612    
     10700   9582.6899     -13392.162      3714.741      -9677.4209      1970109.4      29914.612    
     10800   7438.9818     -13498.823      2883.73       -10615.093      1874986        29914.612    
     10900   7499.8088     -14066.109      2907.3097     -11158.799      1753082.8      29914.612    
     11000   6586.6575     -14555.091      2553.3255     -12001.766      1602315.8      29914.612    
     11100   11464.52      -13414.73       4444.2348     -8970.4956      2081203.3      29914.612    
     11200   8498.6898     -13745.995      3294.5271     -10451.468      1822034.7      29914.612    
     11300   7994.5719     -14425.032      3099.1052     -11325.927      1650884.2      29914.612    
     11400   9843.6701     -14151.027      3815.9103     -10335.117      1762170.5      29914.612    
     11500   6596.6746     -14691.019      2557.2087     -12133.81       1541555.1      29914.612    
     11600   6210.9056     -14798.199      2407.6648     -12390.534      1518017.9      29914.612    
     11700   5784.5351     -15210.324      2242.3818     -12967.943      1350701.8      29914.612    
     11800   5857.9828     -15297.245      2270.8539     -13026.391      1405212.3      29914.612    
     11900   6629.3749     -15279.733      2569.885      -12709.848      1420324.2      29914.612    
     12000   13627.555     -14727.645      5282.7377     -9444.9068      1633364.4      29914.612    
     12100   7614.2629     -14817.58       2951.678      -11865.902      1536813.6      29914.612    
     12200   5655.4647     -15214.889      2192.3475     -13022.541      1384788.5      29914.612    
     12300   5607.8495     -15340.599      2173.8894     -13166.709      1339105.5      29914.612    
     12400   5738.469      -15609.2        2224.5242     -13384.676      1248738.1      29914.612    
     12500   7108.8826     -15235.726      2755.7667     -12479.96       1447414.6      29914.612    
     12600   5572.3602     -15616.274      2160.132      -13456.142      1258182.6      29914.612    
     12700   5676.0584     -15721.022      2200.3307     -13520.691      1276170.3      29914.612    
     12800   4832.5347     -15870.712      1873.3378     -13997.374      1147196.7      29914.612    
     12900   4423.7388     -15846.471      1714.8675     -14131.603      1151839        29914.612    
     13000   8555.0216     -15531.018      3316.3642     -12214.654      1321272.7      29914.612    
     13100   7083.2307     -15016.868      2745.8227     -12271.046      1467371.5      29914.612    
     13200   5112.388      -15577.877      1981.8232     -13596.054      1240554        29914.612    
     13300   4666.3064     -15827.44       1808.8992     -14018.541      1173375.5      29914.612    
     13400   10911.988     -15597.937      4230.0449     -11367.892      1369407.7      29914.612    
     13500   5181.0177     -15727.609      2008.4276     -13719.181      1223276.5      29914.612    
     13600   4442.2167     -15803.454      1722.0305     -14081.423      1164790.2      29914.612    
     13700   4160.293      -16026.775      1612.7425     -14414.033      1093513.3      29914.612    
     13800   3582.1582     -16070.089      1388.6278     -14681.461      1085639.3      29914.612    
     13900   4339.0804     -15953.73       1682.0496     -14271.681      1131367        29914.612    
     14000   4121.1267     -15697.808      1597.5596     -14100.248      1183788.9      29914.612    
     14100   3754.1434     -15821.895      1455.2981     -14366.597      1112633.4      29914.612    
     14200   4152.9627     -15723.005      1609.9009     -14113.104      1187970.9      29914.612    
     14300   5412.803      -15551.454      2098.2795     -13453.175      1242248.5      29914.612    
     14400   5311.8488     -15941.806      2059.1444     -13882.661      1182959.2      29914.612    
     14500   4948.7469     -15586.913      1918.3876     -13668.525      1257929.6      29914.612    
     14600   4101.0587     -15846.566      1589.7802     -14256.786      1124247.6      29914.612    
     14700   4044.9057     -15706.74       1568.0124     -14138.728      1185189.8      29914.612    
     14800   5923.622      -16032.901      2296.299      -13736.602      1176358.8      29914.612    
     14900   3613.1424     -16005.59       1400.6389     -14604.952      1120313.3      29914.612    
     15000   3297.5194     -16060.846      1278.2873     -14782.559      1081315.6      29914.612    
     15100   3630.2435     -15986.997      1407.2682     -14579.728      1113280.9      29914.612    
     15200   3699.5676     -15965.823      1434.1417     -14531.681      1094274        29914.612    
     15300   3954.8235     -15910.262      1533.092      -14377.17       1142876        29914.612    
     15400   4902.2612     -16176.968      1900.3673     -14276.6        1075242.3      29914.612    
     15500   3683.9516     -15857.47       1428.0882     -14429.382      1125102.5      29914.612    
     15600   3710.7348     -16164.908      1438.4707     -14726.437      1054725        29914.612    
     15700   3261.6541     -16159.811      1264.384      -14895.427      1034556.6      29914.612    
     15800   3772.5337     -16239.908      1462.4271     -14777.481      1018034        29914.612    
     15900   3064.2733     -16092.891      1187.8691     -14905.022      1055400.4      29914.612    
     16000   5953.0184     -15981.683      2307.6946     -13673.989      1137212.8      29914.612    
     16100   3315.0067     -16175.314      1285.0662     -14890.248      1039702.4      29914.612    
     16200   4060.9065     -15695.75       1574.2152     -14121.534      1167656.6      29914.612    
     16300   3245.8507     -16018.389      1258.2578     -14760.131      1031396.2      29914.612    
     16400   3314.5922     -16148.327      1284.9056     -14863.422      1040491.4      29914.612    
     16500   3299.6227     -16137.255      1279.1026     -14858.153      1049839.9      29914.612    
     16600   3088.848      -15986.359      1197.3955     -14788.964      1027680.8      29914.612    
     16700   4353.3816     -15834.074      1687.5935     -14146.481      1129495.9      29914.612    
     16800   3837.1511     -15944.082      1487.4761     -14456.605      1108596.1      29914.612    
     16900   3405.7791     -16050.714      1320.2543     -14730.46       1049221        29914.612    
     17000   3005.6633     -16185.644      1165.1489     -15020.495      1010109.4      29914.612    
     17100   2932.8841     -16139.999      1136.936      -15003.063      1026727.1      29914.612    
     17200   3019.6344     -16198.797      1170.5648     -15028.232      1029569.8      29914.612    
     17300   2964.6395     -16296.114      1149.246      -15146.868      1021977.8      29914.612    
     17400   3105.7392     -16147.934      1203.9435     -14943.99       1022546.6      29914.612    
     17500   3141.4143     -16181.49       1217.7729     -14963.717      1022160.8      29914.612    
     17600   5802.7442     -16191.498      2249.4406     -13942.058      1057959.1      29914.612    
     17700   3251.8905     -16001.181      1260.5992     -14740.582      1044787.9      29914.612    
     17800   3170.289      -16223.703      1228.9663     -14994.737      1019520.7      29914.612    
     17900   3223.8797     -16217.042      1249.7408     -14967.301      1018313        29914.612    
     18000   2868.2208     -16258.671      1111.8692     -15146.801      997504.87      29914.612    
     18100   2948.821      -16347.663      1143.1139     -15204.549      973324.3       29914.612    
     18200   2931.643      -16123.257      1136.4548     -14986.802      1009938.8      29914.612    
     18300   5666.1083     -16019.55       2196.4735     -13823.077      1090153.9      29914.612    
     18400   3257.0871     -16139.715      1262.6137     -14877.101      1024114.6      29914.612    
     18500   3031.8539     -16187.56       1175.3017     -15012.258      1018634.8      29914.612    
     18600   3168.2071     -16284.984      1228.1592     -15056.825      972604.61      29914.612    
     18700   3069.5236     -16198.484      1189.9044     -15008.579      1019867.9      29914.612    
     18800   3067.8893     -16177.424      1189.2709     -14988.153      1030872.3      29914.612    
     18900   3287.0966     -16143.137      1274.2469     -14868.89       1028955.1      29914.612    
     19000   3138.0053     -16184.654      1216.4514     -14968.202      1017845.5      29914.612    
     19100   3208.404      -16240.236      1243.7416     -14996.495      1002592.7      29914.612    
     19200   4180.206      -16128.716      1620.4618     -14508.254      1010968.7      29914.612    
     19300   3215.1614     -16337.849      1246.3611     -15091.488      990638.82      29914.612    
     19400   3245.2544     -16228.469      1258.0267     -14970.443      997885.24      29914.612    
     19500   2996.1622     -16203.122      1161.4658     -15041.657      1022287.2      29914.612    
     19600   3086.2917     -16206.978      1196.4046     -15010.573      1008876.9      29914.612    
     19700   2952.8941     -16107.653      1144.6929     -14962.96       1044342.6      29914.612    
     19800   3247.3662     -16332.992      1258.8453     -15074.147      1040883        29914.612    
     19900   2981.0577     -16245.2        1155.6105     -15089.589      983216.46      29914.612    
     20000   2888.4213     -16227.07       1119.6999     -15107.37       1009850.9      29914.612    
     20100   4018.1272     -16108.72       1557.6317     -14551.088      1042497.4      29914.612    
     20200   3267.6392     -16085.234      1266.7042     -14818.53       1023269.2      29914.612    
     20300   3033.9857     -16157.215      1176.1281     -14981.087      1013571.1      29914.612    
     20400   2876.3682     -16234.694      1115.0275     -15119.666      1004729.6      29914.612    
     20500   3084.4103     -16315.805      1195.6753     -15120.13       969822.15      29914.612    
     20600   3047.1131     -16294.966      1181.217      -15113.749      980484.76      29914.612    
     20700   3046.8852     -16297.583      1181.1286     -15116.455      972677.96      29914.612    
     20800   3253.2546     -16232.694      1261.128      -14971.566      1006211.1      29914.612    
     20900   2849.2854     -16311.573      1104.5288     -15207.044      981601.91      29914.612    
     21000   3980.4134     -16425.37       1543.0119     -14882.358      958977.2       29914.612    
     21100   3389.3359     -16067.191      1313.88       -14753.311      1061082.8      29914.612    
     21200   3495.9347     -16061.686      1355.2032     -14706.483      1059420.7      29914.612    
     21300   4255.0548     -16067.917      1649.477      -14418.44       1061224.3      29914.612    
     21400   3471.2072     -16093.734      1345.6175     -14748.117      1036330.8      29914.612    
     21500   5128.374      -16126.73       1988.0202     -14138.71       1061848.5      29914.612    
     21600   3575.0304     -16150.479      1385.8647     -14764.614      1055706.6      29914.612    
     21700   5723.4197     -16087.174      2218.6904     -13868.484      1079653.6      29914.612    
     21800   4022.7634     -15992.469      1559.429      -14433.04       1095851.6      29914.612    
     21900   3382.4745     -16205.283      1311.2202     -14894.063      1018927        29914.612    
     22000   3052.2571     -16380.172      1183.2111     -15196.961      1008789.7      29914.612    
     22100   3170.0065     -16479.402      1228.8568     -15250.545      1006323.6      29914.612    
     22200   3009.9738     -16332.672      1166.8199     -15165.853      1019689.4      29914.612    
     22300   3041.9218     -16286.887      1179.2046     -15107.682      1023198.6      29914.612    
     22400   3256.8752     -16118.097      1262.5315     -14855.565      1054469.2      29914.612    
     22500   3121.9286     -16200.805      1210.2193     -14990.586      1010468.6      29914.612    
     22600   3585.8818     -16389.46       1390.0713     -14999.389      997414.7       29914.612    
     22700   3786.7676     -16167.407      1467.9449     -14699.462      1072876.1      29914.612    
     22800   3314.2222     -16286.686      1284.7621     -15001.924      1009733.2      29914.612    
     22900   3139.8843     -16258.02       1217.1798     -15040.84       1012312.3      29914.612    
     23000   3378.2753     -16184.31       1309.5924     -14874.718      1032202        29914.612    
     23100   3340.7736     -16119.488      1295.0548     -14824.433      1069994.8      29914.612    
     23200   4543.5022     -16150.951      1761.294      -14389.657      1052900.8      29914.612    
     23300   3329.9861     -16027.239      1290.873      -14736.366      1100115.4      29914.612    
     23400   3190.0391     -16226.962      1236.6224     -14990.34       1051530.9      29914.612    
     23500   3751.0168     -16163.216      1454.0861     -14709.13       1054219.8      29914.612    
     23600   3086.3607     -16241.355      1196.4314     -15044.924      1019236        29914.612    
     23700   3254.6777     -16232.599      1261.6796     -14970.919      1056970.6      29914.612    
     23800   4124.6834     -15727.716      1598.9384     -14128.778      1241740.9      29914.612    
     23900   3648.6329     -16180.729      1414.3968     -14766.332      1084247.4      29914.612    
     24000   3750.1138     -16152.36       1453.736      -14698.624      1091125.9      29914.612    
     24100   3478.9612     -16268.71       1348.6234     -14920.087      1068171.7      29914.612    
     24200   3255.261      -16406.36       1261.9057     -15144.455      1027005.4      29914.612    
     24300   2811.0734     -16393.046      1089.7159     -15303.33       1006831.4      29914.612    
     24400   2908.3547     -16423.963      1127.4271     -15296.536      1014481.1      29914.612    
     24500   2939.3012     -16415.07       1139.4236     -15275.647      988712.74      29914.612    
     24600   2949.6211     -16357.86       1143.4241     -15214.436      1018926.5      29914.612    
     24700   3336.7787     -16308.047      1293.5062     -15014.541      1029204        29914.612    
     24800   3097.7861     -16530.819      1200.8604     -15329.959      1000977.9      29914.612    
     24900   4830.2379     -16063.447      1872.4474     -14191          1153273.4      29914.612    
     25000   3466.0489     -16222.574      1343.6179     -14878.956      1047848        29914.612    
     25100   3194.4306     -16331.804      1238.3248     -15093.479      993630.56      29914.612    
     25200   3115.6985     -16327.834      1207.8042     -15120.03       1035389.4      29914.612    
     25300   3471.0738     -16282.849      1345.5658     -14937.283      1057697.3      29914.612    
     25400   6855.3789     -16152.365      2657.4957     -13494.87       1118539        29914.612    
     25500   3107.0621     -16236.581      1204.4563     -15032.125      1041512.3      29914.612    
     25600   3032.2256     -16293.692      1175.4458     -15118.246      998931.13      29914.612    
     25700   2909.8771     -16213.427      1128.0173     -15085.41       1009056.3      29914.612    
     25800   3038.9277     -16297.542      1178.0439     -15119.498      998803.41      29914.612    
     25900   3036.3829     -16248.564      1177.0574     -15071.506      1030199.8      29914.612    
     26000   3410.7377     -16149.892      1322.1765     -14827.716      1053139.1      29914.612    
     26100   3149.5427     -16200.475      1220.9239     -14979.551      1048428.1      29914.612    
     26200   2973.1696     -16211.804      1152.5527     -15059.251      1025359.8      29914.612    
     26300   3137.234      -16216.349      1216.1525     -15000.197      1021627.7      29914.612    
     26400   2813.4825     -16320.195      1090.6498     -15229.545      1016412.9      29914.612    
     26500   2986.7101     -16274.05       1157.8017     -15116.248      1005073.5      29914.612    
     26600   3168.8493     -16242.456      1228.4082     -15014.048      1013631.8      29914.612    
     26700   3263.2359     -16350.037      1264.9972     -15085.039      994704.17      29914.612    
     26800   4588.5314     -16161.789      1778.7496     -14383.039      1055070.7      29914.612    
     26900   3424.4059     -16149.601      1327.475      -14822.126      1048025.5      29914.612    
     27000   3776.1437     -16276.295      1463.8265     -14812.468      1024402.4      29914.612    
     27100   3206.0068     -16265.966      1242.8123     -15023.154      1018642.6      29914.612    
     27200   3971.4028     -16261.248      1539.5189     -14721.729      1061657.2      29914.612    
     27300   3380.8557     -16273.922      1310.5927     -14963.329      1012409.5      29914.612    
     27400   3191.3452     -16159.699      1237.1287     -14922.57       1020906.8      29914.612    
     27500   3522.2729     -16103.679      1365.4132     -14738.266      1061280.5      29914.612    
     27600   3380.8099     -16222.218      1310.5749     -14911.643      1021576.9      29914.612    
     27700   3650.7048     -16280.091      1415.2        -14864.891      1045761.9      29914.612    
     27800   2998.2752     -16276.486      1162.2849     -15114.201      1022328.7      29914.612    
     27900   3267.869      -16378.516      1266.7933     -15111.723      994767.2       29914.612    
     28000   3014.8371     -16261.666      1168.7051     -15092.961      1009226.7      29914.612    
     28100   2856.1216     -16347.004      1107.1789     -15239.825      988055.65      29914.612    
     28200   2970.5154     -16408.457      1151.5238     -15256.933      993569.29      29914.612    
     28300   2873.5333     -16377.166      1113.9285     -15263.237      985980.37      29914.612    
     28400   2905.5283     -16324.829      1126.3314     -15198.498      1002367.4      29914.612    
     28500   2783.3573     -16352.83       1078.9717     -15273.859      963607.56      29914.612    
     28600   3282.3529     -16286.923      1272.408      -15014.515      1031665.3      29914.612    
     28700   2840.4258     -16370.051      1101.0944     -15268.957      1006241.5      29914.612    
     28800   3182.1513     -16222.283      1233.5647     -14988.719      1056741.1      29914.612    
     28900   3414.8763     -16239.249      1323.7808     -14915.468      1037926.6      29914.612    
     29000   2989.4596     -16316.862      1158.8675     -15157.995      990237.18      29914.612    
     29100   2827.851      -16363.301      1096.2197     -15267.081      963351.64      29914.612    
     29200   3043.6186     -16413.251      1179.8623     -15233.389      982693.88      29914.612    
     29300   3324.0435     -16372.806      1288.5694     -15084.236      980645.58      29914.612    
     29400   3745.4902     -16204.463      1451.9437     -14752.52       1069982.7      29914.612    
     29500   3138.7445     -16285.532      1216.738      -15068.794      1005962.9      29914.612    
     29600   3207.0051     -16507.622      1243.1993     -15264.422      1007676.2      29914.612    
     29700   3264.6716     -16367.907      1265.5538     -15102.354      999214.85      29914.612    
     29800   3494.8854     -16536.461      1354.7964     -15181.664      984848.06      29914.612    
     29900   3880.0929     -16114.307      1504.1226     -14610.184      1093605.2      29914.612    
     30000   3300.6721     -16341.718      1279.5094     -15062.208      1009320.4      29914.612    
     30100   3192.1827     -16440.264      1237.4534     -15202.81       1003598.3      29914.612    
     30181   3056.977      -16402.694      1185.0407     -15217.653      1000274.1      29914.612    
Loop time of 8730.67 on 1 procs for 20000 steps with 3000 atoms

Performance: 0.099 ns/day, 242.519 hours/ns, 2.291 timesteps/s, 6.872 katom-step/s
202.9% CPU use with 1 MPI tasks x no OpenMP threads

MPI task timing breakdown:
Section |  min time  |  avg time  |  max time  |%varavg| %total
---------------------------------------------------------------
Pair    | 8615.3     | 8615.3     | 8615.3     |   0.0 | 98.68
Neigh   | 113.88     | 113.88     | 113.88     |   0.0 |  1.30
Comm    | 0.70479    | 0.70479    | 0.70479    |   0.0 |  0.01
Output  | 0.022387   | 0.022387   | 0.022387   |   0.0 |  0.00
Modify  | 0.5781     | 0.5781     | 0.5781     |   0.0 |  0.01
Other   |            | 0.1685     |            |       |  0.00

Nlocal:           3000 ave        3000 max        3000 min
Histogram: 1 0 0 0 0 0 0 0 0 0
Nghost:           6282 ave        6282 max        6282 min
Histogram: 1 0 0 0 0 0 0 0 0 0
Neighs:              0 ave           0 max           0 min
Histogram: 1 0 0 0 0 0 0 0 0 0
FullNghs:       428780 ave      428780 max      428780 min
Histogram: 1 0 0 0 0 0 0 0 0 0

Total # of neighbors = 428780
Ave neighs/atom = 142.92667
Neighbor list builds = 6402
Dangerous builds = 1501
>>> Start Production Phase (20 ps)...
Neighbor list info ...
  update: every = 1 steps, delay = 0 steps, check = yes
  max neighbors/atom: 2000, page size: 100000
  master list distance cutoff = 7
  ghost atom cutoff = 7
  binsize = 3.5, bins = 9 9 9
  2 neighbor lists, perpetual/occasional/extra = 1 1 0
  (1) pair allegro, perpetual
      attributes: full, newton on, ghost
      pair build: full/bin/ghost
      stencil: full/ghost/bin/3d
      bin: standard
  (2) compute rdf, occasional
      attributes: half, newton on
      pair build: half/bin/atomonly/newton
      stencil: half/bin/3d
      bin: standard
Setting up Verlet run ...
  Unit style    : metal
  Current step  : 0
  Time step     : 0.0005
Per MPI rank memory allocation (min/avg/max) = 8.122 | 8.122 | 8.122 Mbytes
   Step          Temp          PotEng         KinEng         TotEng         Press          Volume    
         0   3056.977      -16402.694      1185.0407     -15217.653      1000274.1      29914.612    
       100   3238.819      -16363.372      1255.532      -15107.84       1016522.4      29914.612    
       200   3329.8254     -16438.744      1290.8107     -15147.934      987560.57      29914.612    
       300   3511.0419     -16525.401      1361.0595     -15164.341      975625.77      29914.612    
       400   3053.3826     -16409.876      1183.6473     -15226.228      992135.09      29914.612    
       500   3087.7944     -16578.685      1196.9871     -15381.698      974648.85      29914.612    
       600   3103.6688     -16476.35       1203.1409     -15273.21       982570.91      29914.612    
       700   3013.4319     -16563.319      1168.1604     -15395.158      961034.11      29914.612    
       800   3306.6137     -16392.71       1281.8127     -15110.897      983721.94      29914.612    
       900   3122.2762     -16519.377      1210.354      -15309.023      957371.61      29914.612    
      1000   3132.0217     -16446.772      1214.1319     -15232.64       962201.68      29914.612    
      1100   3737.0385     -16493.045      1448.6674     -15044.377      960900.75      29914.612    
      1200   2941.1773     -16446.891      1140.1508     -15306.741      969299.73      29914.612    
      1300   3067.722      -16398.536      1189.206      -15209.33       961790.74      29914.612    
      1400   3409.4955     -16554.751      1321.6949     -15233.056      971882.09      29914.612    
      1500   3261.6257     -16561.658      1264.3731     -15297.285      952089.88      29914.612    
      1600   3132.4682     -16645.316      1214.305      -15431.011      939890.34      29914.612    
      1700   3071.5093     -16604.265      1190.6742     -15413.591      936609.45      29914.612    
      1800   3444.1091     -16384.938      1335.113      -15049.825      980711.86      29914.612    
      1900   3062.848      -16544.026      1187.3166     -15356.709      932589.13      29914.612    
      2000   3303.8318     -16339.471      1280.7343     -15058.737      1012710.8      29914.612    
      2100   3215.0736     -16392.119      1246.3271     -15145.792      997436.96      29914.612    
      2200   2983.0929     -16444.95       1156.3995     -15288.551      958798.79      29914.612    
      2300   3575.6298     -16336.057      1386.0971     -14949.959      981986.67      29914.612    
      2400   3928.1258     -16345.904      1522.7426     -14823.162      990624.92      29914.612    
      2500   3255.0448     -16482.854      1261.822      -15221.032      962936.94      29914.612    
      2600   3144.9788     -16463.786      1219.1547     -15244.631      966443.95      29914.612    
      2700   3045.2093     -16426.014      1180.4789     -15245.535      959528.35      29914.612    
      2800   3430.3427     -16394.106      1329.7764     -15064.33       1022437.6      29914.612    
      2900   3327.6953     -16476.862      1289.985      -15186.877      994439.78      29914.612    
      3000   3385.8234     -16418.167      1312.5184     -15105.648      979739.96      29914.612    
      3100   3428.9193     -16420.637      1329.2246     -15091.413      1003061.1      29914.612    
      3200   3489.7936     -16367.507      1352.8226     -15014.684      1001968.9      29914.612    
      3300   3175.1714     -16581.18       1230.8589     -15350.321      960686.35      29914.612    
      3400   6574.7491     -16446.682      2548.7092     -13897.973      1009276.8      29914.612    
      3500   3558.6714     -16460.119      1379.5231     -15080.596      999993.5       29914.612    
      3600   3576.2163     -16558.355      1386.3244     -15172.03       967946.65      29914.612    
      3700   3248.7168     -16552.238      1259.3689     -15292.87       952336.79      29914.612    
      3800   3369.3017     -16400.864      1306.1138     -15094.75       1012556.4      29914.612    
      3900   3203.1322     -16565.1        1241.698      -15323.402      941840.75      29914.612    
      4000   3373.8081     -16386.509      1307.8607     -15078.648      986569.51      29914.612    
      4100   4489.4567     -17063.282      1740.3431     -15322.939      910177.01      29914.612    
      4200   3389.1598     -16289.994      1313.8118     -14976.182      1025980        29914.612    
      4300   3197.3542     -16422.787      1239.4581     -15183.329      979017.78      29914.612    
      4400   3286.0127     -16543.246      1273.8267     -15269.419      966091.51      29914.612    
      4500   3131.5517     -16568.091      1213.9497     -15354.141      948650.23      29914.612    
      4600   3061.3566     -16587.322      1186.7385     -15400.583      954281.19      29914.612    
      4700   3466.9357     -16547.421      1343.9617     -15203.459      952628.82      29914.612    
      4800   3209.4191     -16593.635      1244.1351     -15349.5        953308.29      29914.612    
      4900   3244.0794     -16543.852      1257.5712     -15286.281      949164.45      29914.612    
      5000   3869.6005     -16542.075      1500.0552     -15042.02       980800.2       29914.612    
      5100   4472.865      -16565.941      1733.9114     -14832.029      969087.21      29914.612    
      5200   3365.2664     -16500.137      1304.5495     -15195.587      979299.25      29914.612    
      5300   2980.1395     -16618.852      1155.2546     -15463.598      938505.46      29914.612    
      5400   3222.526      -16611.041      1249.216      -15361.825      972013.81      29914.612    
      5500   3121.0841     -16643.438      1209.8919     -15433.546      955135.21      29914.612    
      5600   3379.3852     -16563.283      1310.0226     -15253.26       960015.75      29914.612    
      5700   3651.9336     -16573.399      1415.6763     -15157.723      987077.59      29914.612    
      5800   4017.5724     -16381.877      1557.4167     -14824.461      1035235.9      29914.612    
      5900   3260.2141     -16570.018      1263.8258     -15306.192      974429.29      29914.612    
      6000   3104.0845     -16615.484      1203.302      -15412.182      962038.01      29914.612    
      6100   3197.4795     -16550.63       1239.5067     -15311.123      948806.49      29914.612    
      6200   3100.4163     -16611.569      1201.88       -15409.689      957724.85      29914.612    
      6300   2970.8391     -16525.564      1151.6493     -15373.915      955547.62      29914.612    
      6400   3186.5167     -16634.886      1235.2569     -15399.629      957681.22      29914.612    
      6500   3290.8376     -16589.211      1275.6971     -15313.514      962745.1       29914.612    
      6600   3062.9665     -16604.618      1187.3626     -15417.255      951896.77      29914.612    
      6700   3145.3146     -16589.898      1219.2849     -15370.613      937257.18      29914.612    
      6800   3154.3593     -16645.631      1222.7911     -15422.84       930800.34      29914.612    
      6900   3374.2551     -16456.66       1308.034      -15148.626      981865.4       29914.612    
      7000   3246.2859     -16514.894      1258.4265     -15256.467      943722.99      29914.612    
      7100   3414.1749     -16596.723      1323.5089     -15273.214      960297.22      29914.612    
      7200   3023.7423     -16594.229      1172.1573     -15422.072      934413.95      29914.612    
      7300   3131.8725     -16582.751      1214.074      -15368.677      950645.5       29914.612    
      7400   3221.6361     -16597.652      1248.871      -15348.781      963362.95      29914.612    
      7500   2939.6496     -16585.317      1139.5586     -15445.758      954559.81      29914.612    
      7600   3463.9019     -16599.408      1342.7856     -15256.622      962760.45      29914.612    
      7700   3199.3553     -16582.181      1240.2338     -15341.947      955240.71      29914.612    
      7800   3278.1261     -16605.065      1270.7695     -15334.295      947595.99      29914.612    
      7900   2911.3767     -16602.183      1128.5986     -15473.585      930244.3       29914.612    
      8000   3034.946      -16535.798      1176.5004     -15359.298      955112.24      29914.612    
      8100   3080.9726     -16643.33       1194.3426     -15448.988      955189.14      29914.612    
      8200   3158.5072     -16675.846      1224.399      -15451.447      956675.13      29914.612    
      8300   4079.4516     -16500.077      1581.4042     -14918.673      991094.71      29914.612    
      8400   3281.6415     -16461.273      1272.1322     -15189.141      981208.42      29914.612    
      8500   3250.1657     -16543.7        1259.9306     -15283.769      969462.2       29914.612    
      8600   3483.609      -16568.445      1350.4251     -15218.02       968499.54      29914.612    
      8700   2984.1806     -16564.703      1156.8211     -15407.882      954926.9       29914.612    
      8800   3123.477      -16595.669      1210.8195     -15384.849      961402.83      29914.612    
      8900   3063.3277     -16473.324      1187.5026     -15285.821      945122.75      29914.612    
      9000   3093.6055     -16536.265      1199.2398     -15337.025      949168.22      29914.612    
      9100   3359.1632     -16466.025      1302.1835     -15163.842      968162.65      29914.612    
      9200   3693.4073     -16436.889      1431.7537     -15005.136      996024.14      29914.612    
      9300   3365.5651     -16515.847      1304.6653     -15211.182      977214.21      29914.612    
      9400   3103.4417     -16571.478      1203.0528     -15368.425      960407.88      29914.612    
      9500   3090.2325     -16511.001      1197.9323     -15313.069      968285.99      29914.612    
      9600   2976.2316     -16551.002      1153.7397     -15397.262      961329.33      29914.612    
      9700   3119.6356     -16493.653      1209.3304     -15284.322      968030.82      29914.612    
      9800   3304.0004     -16444.879      1280.7996     -15164.08       1001325.2      29914.612    
      9900   3448.6775     -16450.259      1336.8839     -15113.376      992235.88      29914.612    
     10000   3468.6614     -16502.733      1344.6307     -15158.103      981023.03      29914.612    
     10100   3434.2664     -16455.595      1331.2974     -15124.297      989096.83      29914.612    
     10200   3137.4035     -16490.949      1216.2182     -15274.731      972024.89      29914.612    
     10300   3085.5411     -16559.971      1196.1136     -15363.857      957062.13      29914.612    
     10400   3177.4667     -16459.578      1231.7487     -15227.829      1001298.9      29914.612    
     10500   3067.2174     -16437.39       1189.0104     -15248.38       977725.28      29914.612    
     10600   3198.4563     -16489.36       1239.8853     -15249.474      977193.2       29914.612    
     10700   3467.7189     -16369.725      1344.2653     -15025.46       1030850        29914.612    
     10800   3315.7031     -16450.557      1285.3362     -15165.221      976894.7       29914.612    
     10900   2977.705      -16452.159      1154.3108     -15297.848      969443.31      29914.612    
     11000   3200.0343     -16446.575      1240.497      -15206.078      977004.44      29914.612    
     11100   2975.4465     -16503.261      1153.4353     -15349.826      954996.8       29914.612    
     11200   3238.1424     -16397.781      1255.2697     -15142.511      990276.4       29914.612    
     11300   3011.2821     -16460.007      1167.3271     -15292.68       981398.6       29914.612    
     11400   3235.7262     -16423.9        1254.333      -15169.567      997369.95      29914.612    
     11500   2916.1655     -16493.769      1130.455      -15363.314      965188.14      29914.612    
     11600   3290.6701     -16450.815      1275.6321     -15175.183      1003018.9      29914.612    
     11700   3360.1613     -16499.156      1302.5705     -15196.586      983281.69      29914.612    
     11800   3177.5934     -16567.904      1231.7978     -15336.107      962615.67      29914.612    
     11900   3062.347      -16517.572      1187.1224     -15330.45       966705.87      29914.612    
     12000   3242.2689     -16535.391      1256.8693     -15278.522      970260.15      29914.612    
     12100   3323.0413     -16456.472      1288.1809     -15168.291      986513.34      29914.612    
     12200   3319.483      -16533.881      1286.8015     -15247.079      974161.54      29914.612    
     12300   3138.3369     -16591.13       1216.58       -15374.55       953976.64      29914.612    
     12400   3157.9106     -16404.015      1224.1677     -15179.847      1008723.8      29914.612    
     12500   2817.9126     -16591.114      1092.3671     -15498.747      947158.85      29914.612    
     12600   3029.7891     -16586.37       1174.5013     -15411.869      948479.29      29914.612    
     12700   3122.6453     -16551.824      1210.4971     -15341.327      948505.02      29914.612    
     12800   2983.129      -16535.676      1156.4135     -15379.263      946005.65      29914.612    
     12900   3036.0211     -16572.156      1176.9171     -15395.239      924965.4       29914.612    
     13000   3081.0989     -16516.95       1194.3916     -15322.559      948600         29914.612    
     13100   3400.6331     -16478.861      1318.2594     -15160.601      969810.31      29914.612    
     13200   3221.6216     -16450.669      1248.8654     -15201.803      973058.98      29914.612    
     13300   3017.6684     -16528.539      1169.8027     -15358.736      946546.34      29914.612    
     13400   3229.6912     -16529.925      1251.9936     -15277.932      960610.3       29914.612    
     13500   3037.159      -16567.62       1177.3583     -15390.262      957972.35      29914.612    
     13600   3079.8019     -16603.384      1193.8888     -15409.495      941195.21      29914.612    
     13700   3041.3357     -16574.098      1178.9773     -15395.121      931428.86      29914.612    
     13800   3145.0973     -16438.459      1219.2007     -15219.258      960315.81      29914.612    
     13900   3290.4802     -16380.75       1275.5585     -15105.192      967674.24      29914.612    
     14000   3128.4226     -16511.651      1212.7367     -15298.914      970174.06      29914.612    
     14100   3835.3926     -16572.419      1486.7945     -15085.625      987926.02      29914.612    
     14200   2917.8525     -16477.329      1131.109      -15346.22       970153.22      29914.612    
     14300   2868.0374     -16443.961      1111.7981     -15332.163      972107.44      29914.612    
     14400   3274.5435     -16488.925      1269.3806     -15219.544      963994.02      29914.612    
     14500   3166.376      -16489.052      1227.4494     -15261.603      994106.8       29914.612    
     14600   3215.9688     -16450.343      1246.6741     -15203.669      982226.1       29914.612    
     14700   3755.9507     -16504.671      1455.9987     -15048.672      990251.72      29914.612    
     14800   3510.8497     -16363.102      1360.985      -15002.117      1004693.7      29914.612    
     14900   3091.7359     -16444.542      1198.5151     -15246.027      985136.94      29914.612    
     15000   3088.9036     -16400.41       1197.4171     -15202.993      981736.23      29914.612    
     15100   2945.0831     -16476.582      1141.6649     -15334.917      954801.01      29914.612    
     15200   3178.7059     -16495.926      1232.2291     -15263.697      959822.98      29914.612    
     15300   3040.3814     -16532.38       1178.6074     -15353.772      966824.86      29914.612    
     15400   3223.4085     -16485.259      1249.5581     -15235.701      975644.44      29914.612    
     15500   2935.6841     -16505.209      1138.0214     -15367.188      958753.03      29914.612    
     15600   3122.9555     -16555.132      1210.6174     -15344.514      943527.08      29914.612    
     15700   2808.5739     -16573.018      1088.747      -15484.272      941063.98      29914.612    
     15800   3159.4355     -16540.859      1224.7589     -15316.1        963884.14      29914.612    
     15900   3288.7306     -16420.136      1274.8803     -15145.256      985398.79      29914.612    
     16000   3234.6742     -16575.14       1253.9253     -15321.215      948625.7       29914.612    
     16100   3244.0678     -16511.034      1257.5667     -15253.467      965874.31      29914.612    
     16200   3234.4918     -16537.003      1253.8545     -15283.149      956566.5       29914.612    
     16300   3054.0904     -16547.803      1183.9217     -15363.882      942169.17      29914.612    
     16400   3371.2182     -16447.869      1306.8567     -15141.013      993509.32      29914.612    
     16500   3237.5005     -16518.834      1255.0209     -15263.813      963040.46      29914.612    
     16600   3100.823      -16537.709      1202.0377     -15335.671      961248.96      29914.612    
     16700   3329.6225     -16450.901      1290.7321     -15160.169      977891.44      29914.612    
     16800   3586.9698     -16462.48       1390.4931     -15071.987      1000176.2      29914.612    
     16900   3245.4399     -16492.056      1258.0986     -15233.957      945096.29      29914.612    
     17000   3456.7562     -16431.372      1340.0156     -15091.356      985102.68      29914.612    
     17100   3308.9494     -16456.145      1282.7181     -15173.427      969967.73      29914.612    
     17200   3365.1611     -16651.271      1304.5086     -15346.763      951420.9       29914.612    
     17300   3345.5735     -16478.851      1296.9155     -15181.935      970121.68      29914.612    
     17400   3208.954      -16624.321      1243.9548     -15380.366      970987.94      29914.612    
     17500   3099.0829     -16521.746      1201.3631     -15320.383      968103.41      29914.612    
     17600   3456.8967     -16459.283      1340.0701     -15119.213      991406.96      29914.612    
     17700   3192.7429     -16434.709      1237.6705     -15197.039      1001764.2      29914.612    
     17800   2990.359      -16509.191      1159.2162     -15349.975      965057.92      29914.612    
     17900   4039.9549     -16322.878      1566.0933     -14756.785      1037153.6      29914.612    
     18000   3377.6722     -16404.007      1309.3586     -15094.648      1005544.1      29914.612    
     18100   2993.8535     -16480.717      1160.5708     -15320.146      970983.77      29914.612    
     18200   3223.4436     -16476.505      1249.5717     -15226.933      959481.66      29914.612    
     18300   3033.8192     -16492.968      1176.0636     -15316.904      954894.02      29914.612    
     18400   3061.0582     -16478.525      1186.6228     -15291.902      974494.02      29914.612    
     18500   3791.9961     -16378.769      1469.9718     -14908.797      1007257.5      29914.612    
     18600   3420.3952     -16519.513      1325.9202     -15193.592      981286.86      29914.612    
     18700   3711.3301     -16518.129      1438.7015     -15079.428      973206.98      29914.612    
     18800   3431.5683     -16300.801      1330.2515     -14970.55       1046031.5      29914.612    
     18900   3950.1506     -16427.497      1531.2805     -14896.216      1000635.7      29914.612    
     19000   3739.9436     -16326.716      1449.7935     -14876.922      1035281.2      29914.612    
     19100   3450.7326     -16320.135      1337.6805     -14982.454      1006326.9      29914.612    
     19200   3587.8656     -16443.599      1390.8403     -15052.758      1002857.6      29914.612    
     19300   3117.8212     -16497.088      1208.627      -15288.461      998514.37      29914.612    
     19400   5056.8412     -16287.186      1960.2904     -14326.896      1071834        29914.612    
     19500   3653.4637     -16508.75       1416.2695     -15092.48       980848.35      29914.612    
     19600   3460.9472     -16157.708      1341.6403     -14816.068      1079138.9      29914.612    
     19700   3384.7505     -16423.248      1312.1025     -15111.145      983435.16      29914.612    
     19800   3450.2377     -16361.421      1337.4887     -15023.933      995839.83      29914.612    
     19900   3565.5134     -16398.335      1382.1755     -15016.159      994262.51      29914.612    
     20000   3176.7091     -16418.736      1231.455      -15187.281      970841.68      29914.612    
     20100   3276.3808     -16397.461      1270.0929     -15127.368      980744.34      29914.612    
     20200   3266.2974     -16404.564      1266.184      -15138.38       993032.12      29914.612    
     20300   3335.447      -16526.965      1292.99       -15233.975      953259.72      29914.612    
     20400   3123.7366     -16460.372      1210.9202     -15249.452      954834.93      29914.612    
     20500   3351.3834     -16365.13       1299.1677     -15065.962      983272.97      29914.612    
     20600   3222.6797     -16616.567      1249.2756     -15367.291      947644.21      29914.612    
     20700   3117.2269     -16567.604      1208.3967     -15359.208      931459.5       29914.612    
     20800   3269.047      -16613.044      1267.2499     -15345.794      943416.99      29914.612    
     20900   3742.017      -16362.595      1450.5973     -14911.998      969717.83      29914.612    
     21000   4105.9123     -16487.995      1591.6617     -14896.333      955088.35      29914.612    
     21100   3357.6523     -16554.824      1301.5979     -15253.227      948026.92      29914.612    
     21200   3239.3354     -16467.442      1255.7322     -15211.71       972001.61      29914.612    
     21300   3313.6612     -16574.159      1284.5447     -15289.614      949876.88      29914.612    
     21400   3330.8722     -16554.665      1291.2165     -15263.449      969831.53      29914.612    
     21500   3024.6162     -16639.132      1172.496      -15466.636      942439.58      29914.612    
     21600   3032.9203     -16550.599      1175.7151     -15374.884      955209.87      29914.612    
     21700   3512.1079     -16645.04       1361.4728     -15283.567      939783.1       29914.612    
     21800   3119.9805     -16600.51       1209.4641     -15391.046      943104.33      29914.612    
     21900   3287.5027     -16554.439      1274.4043     -15280.035      960289.13      29914.612    
     22000   3025.6541     -16578.393      1172.8984     -15405.495      928317.28      29914.612    
     22100   3083.2563     -16614.392      1195.2279     -15419.164      928036.63      29914.612    
     22200   3698.9847     -16282.525      1433.9157     -14848.609      993494.78      29914.612    
     22300   3179.6226     -16552.787      1232.5845     -15320.203      943028.4       29914.612    
     22400   3240.6713     -16439.106      1256.2501     -15182.856      956403.92      29914.612    
     22500   3540.3126     -16474.771      1372.4064     -15102.364      964051.91      29914.612    
     22600   3286.6715     -16520.491      1274.0821     -15246.408      950926.89      29914.612    
     22700   3429.8864     -16575.092      1329.5995     -15245.492      957430.65      29914.612    
     22800   3483.3206     -16591.99       1350.3133     -15241.677      929264.73      29914.612    
     22900   3361.0163     -16485.417      1302.9019     -15182.515      955620.68      29914.612    
     23000   3470.406      -16465.244      1345.307      -15119.937      973280.04      29914.612    
     23100   2971.9893     -16537.397      1152.0952     -15385.301      947306.49      29914.612    
     23200   3624.8618     -16473.421      1405.1819     -15068.239      983903.08      29914.612    
     23300   3430.5533     -16486.15       1329.858      -15156.292      966425.64      29914.612    
     23400   3265.7353     -16486.692      1265.9661     -15220.725      963329.33      29914.612    
     23500   3290.2996     -16562.949      1275.4885     -15287.461      941005.97      29914.612    
     23600   3983.7822     -16729.206      1544.3179     -15184.888      949977.91      29914.612    
     23700   3339.4662     -16509.186      1294.548      -15214.638      970057.85      29914.612    
     23800   3270.3863     -16552.228      1267.7691     -15284.459      950150.66      29914.612    
     23900   3222.5914     -16526.748      1249.2413     -15277.507      966003.8       29914.612    
     24000   3339.8341     -16522.415      1294.6906     -15227.724      944646.04      29914.612    
     24100   3332.3251     -16486.922      1291.7797     -15195.142      975655.93      29914.612    
     24200   3361.5731     -16512.632      1303.1178     -15209.514      963641.74      29914.612    
     24300   3323.6479     -16539.771      1288.416      -15251.355      951827.36      29914.612    
     24400   3796.8504     -16537.985      1471.8535     -15066.131      963325.89      29914.612    
     24500   3127.8901     -16528.751      1212.5303     -15316.221      948991.01      29914.612    
     24600   3224.2264     -16492.613      1249.8751     -15242.737      967025.15      29914.612    
     24700   2986.7348     -16560.01       1157.8113     -15402.199      940124.98      29914.612    
     24800   3073.3335     -16568.137      1191.3813     -15376.755      934725.11      29914.612    
     24900   5153.583      -16008.978      1997.7925     -14011.186      1136822.6      29914.612    
     25000   3418.9232     -16268.844      1325.3496     -14943.494      993740.89      29914.612    
     25100   3836.5467     -16366.834      1487.2419     -14879.592      1019084.2      29914.612    
     25200   3321.2289     -16477.603      1287.4783     -15190.125      952788.56      29914.612    
     25300   3418.7284     -16550.073      1325.2741     -15224.799      967296.06      29914.612    
     25400   3230.0712     -16535.074      1252.1409     -15282.934      959653.39      29914.612    
     25500   3248.902      -16528.153      1259.4407     -15268.713      938423.54      29914.612    
     25600   3535.1762     -16500.815      1370.4152     -15130.4        943692.6       29914.612    
     25700   3364.5395     -16525.633      1304.2677     -15221.365      947317.36      29914.612    
     25800   3184.1647     -16534.763      1234.3452     -15300.418      935921.78      29914.612    
     25900   3400.5321     -16586.938      1318.2203     -15268.717      949208.74      29914.612    
     26000   3210.338      -16560.549      1244.4913     -15316.058      954233.04      29914.612    
     26100   3232.4902     -16600.152      1253.0786     -15347.073      949089.46      29914.612    
     26200   3477.8132     -16581.817      1348.1784     -15233.638      953984.39      29914.612    
     26300   3289.9368     -16700.582      1275.3479     -15425.234      944928.39      29914.612    
     26400   5994.9628     -16473.92       2323.9544     -14149.965      1014703.4      29914.612    
     26500   3621.6103     -16563.55       1403.9215     -15159.629      998728.83      29914.612    
     26600   3620.1305     -16500.88       1403.3479     -15097.533      962438.58      29914.612    
     26700   3213.5022     -16553.586      1245.7179     -15307.868      943248.82      29914.612    
     26800   3717.7765     -16659.891      1441.2004     -15218.691      949662.89      29914.612    
     26900   5001.7386     -16264.742      1938.9298     -14325.812      1068621.6      29914.612    
     27000   3759.7345     -16564.431      1457.4655     -15106.966      974920.87      29914.612    
     27100   6872.2593     -16500.767      2664.0394     -13836.728      1016055.2      29914.612    
     27200   3211.349      -16573.028      1244.8832     -15328.144      946981.46      29914.612    
     27300   3118.2707     -16635.39       1208.8013     -15426.589      929109.77      29914.612    
     27400   3004.0165     -16644.48       1164.5105     -15479.969      938228.73      29914.612    
     27500   3052.0773     -16699.347      1183.1414     -15516.206      917099.3       29914.612    
     27600   3158.8986     -16678.688      1224.5507     -15454.138      897930.72      29914.612    
     27700   3137.028      -16699.015      1216.0726     -15482.943      918784.42      29914.612    
     27800   3505.8768     -16662.929      1359.0573     -15303.872      913027.77      29914.612    
     27900   3453.2209     -16653.616      1338.6451     -15314.971      927832.14      29914.612    
     28000   3279.7346     -16498.543      1271.393      -15227.15       951731.28      29914.612    
     28100   3703.6958     -16681.347      1435.742      -15245.605      942764.87      29914.612    
     28200   3548.551      -16653.688      1375.6        -15278.088      935151.17      29914.612    
     28300   4144.1407     -16427.559      1606.481      -14821.078      1004587.2      29914.612    
     28400   3255.6166     -16539.468      1262.0436     -15277.424      941993.83      29914.612    
     28500   3523.4504     -16572.39       1365.8697     -15206.521      937767.65      29914.612    
     28600   3555.9552     -16601.983      1378.4702     -15223.513      932237.3       29914.612    
     28700   3589.4815     -16595.855      1391.4667     -15204.389      926327.37      29914.612    
     28800   3250.1201     -16668.189      1259.9129     -15408.276      924569.32      29914.612    
     28900   3423.7098     -16588.353      1327.2051     -15261.147      929618.61      29914.612    
     29000   3463.0744     -16534.096      1342.4649     -15191.632      958531.19      29914.612    
     29100   3309.4436     -16631.423      1282.9097     -15348.513      934255.25      29914.612    
     29200   4479.8332     -16637.488      1736.6126     -14900.875      949238.1       29914.612    
     29300   3295.261      -16579.686      1277.4118     -15302.275      919161.31      29914.612    
     29400   4673.03       -16557.469      1811.5056     -14745.963      956664.64      29914.612    
     29500   3053.5822     -16648.006      1183.7247     -15464.281      925483.15      29914.612    
     29600   3450.6896     -16617.258      1337.6639     -15279.594      925142.86      29914.612    
     29700   3141.5308     -16637.158      1217.8181     -15419.34       913093.51      29914.612    
     29800   3424.0646     -16617.466      1327.3427     -15290.124      934379.65      29914.612    
     29900   3122.9777     -16659.08       1210.626      -15448.454      914457.69      29914.612    
     30000   3378.4129     -16635.064      1309.6457     -15325.418      914772.97      29914.612    
     30100   3251.9879     -16662.702      1260.6369     -15402.065      912384.73      29914.612    
     30200   2859.1245     -16649          1108.343      -15540.657      902202.7       29914.612    
     30300   3071.5068     -16623.299      1190.6732     -15432.626      917565.72      29914.612    
     30400   3245.9895     -16602.47       1258.3116     -15344.159      925082.16      29914.612    
     30500   3080.026      -16589.154      1193.9757     -15395.178      921731.38      29914.612    
     30600   3034.1012     -16597.628      1176.1729     -15421.455      908351.89      29914.612    
     30700   3535.7254     -16578.515      1370.6281     -15207.887      938577.38      29914.612    
     30800   3375.3657     -16728.019      1308.4645     -15419.555      908384.31      29914.612    
     30900   3328.8846     -16599.186      1290.446      -15308.74       944532.47      29914.612    
     31000   3437.7157     -16499.638      1332.6345     -15167.004      958057.34      29914.612    
     31100   3545.3123     -16645.101      1374.3445     -15270.756      916149.15      29914.612    
     31200   3302.0744     -16525.212      1280.053      -15245.159      929079.13      29914.612    
     31300   3107.0285     -16557.211      1204.4433     -15352.767      921467.2       29914.612    
     31400   3083.0209     -16643.214      1195.1367     -15448.077      903704.95      29914.612    
     31500   2976.3509     -16626.352      1153.7859     -15472.566      907914.1       29914.612    
     31600   3343.3416     -16633.989      1296.0503     -15337.938      923669.38      29914.612    
     31700   3293.3795     -16546.353      1276.6824     -15269.671      939473.8       29914.612    
     31800   3162.9711     -16626.116      1226.1295     -15399.986      912579.58      29914.612    
     31900   3742.2152     -16708.869      1450.6741     -15258.195      942485.23      29914.612    
     32000   3518.8463     -16755.889      1364.0849     -15391.804      934597.01      29914.612    
     32100   3406.9758     -16578.598      1320.7182     -15257.88       928893.57      29914.612    
     32200   3352.6494     -16578.036      1299.6585     -15278.377      945888.51      29914.612    
     32300   3104.5276     -16660.818      1203.4738     -15457.344      945322.66      29914.612    
     32400   3359.8213     -16533.895      1302.4387     -15231.456      945570.15      29914.612    
     32500   3163.2037     -16594.798      1226.2196     -15368.578      937539.41      29914.612    
     32600   3242.3436     -16590.826      1256.8983     -15333.928      916055.39      29914.612    
     32700   3135.8634     -16549.459      1215.6211     -15333.837      941804.29      29914.612    
     32800   3179.6684     -16501.997      1232.6022     -15269.395      970847.18      29914.612    
     32900   3250.2818     -16514.683      1259.9756     -15254.708      957777.77      29914.612    
     33000   3096.5933     -16475.492      1200.398      -15275.094      947636.4       29914.612    
     33100   3379.7332     -16505.592      1310.1576     -15195.435      973073.75      29914.612    
     33200   3442.429      -16470.733      1334.4616     -15136.271      964906.64      29914.612    
     33300   3387.7438     -16417.813      1313.2629     -15104.55       965924.13      29914.612    
     33400   3019.7066     -16557.857      1170.5928     -15387.264      937581.91      29914.612    
     33500   3208.2668     -16542.85       1243.6884     -15299.162      942532.83      29914.612    
     33600   3104.4706     -16511.06       1203.4517     -15307.609      952822.76      29914.612    
     33700   3268.8586     -16440.16       1267.1769     -15172.983      974896.5       29914.612    
     33800   3409.5974     -16468.656      1321.7344     -15146.921      961498.84      29914.612    
     33900   3556.0069     -16425.771      1378.4902     -15047.28       959327.12      29914.612    
     34000   3233.7402     -16460.622      1253.5632     -15207.059      970847.28      29914.612    
     34100   3256.2622     -16512.185      1262.2939     -15249.891      968770.88      29914.612    
     34200   3403.3111     -16472.738      1319.2975     -15153.44       963716.11      29914.612    
     34300   3214.5332     -16434.13       1246.1176     -15188.012      970416.61      29914.612    
     34400   3200.657      -16564.507      1240.7384     -15323.769      944274.53      29914.612    
     34500   4819.1893     -16580.371      1868.1644     -14712.207      968393.17      29914.612    
     34600   3018.3777     -16505.851      1170.0777     -15335.774      950790.42      29914.612    
     34700   3236.5342     -16504.704      1254.6463     -15250.058      952703.63      29914.612    
     34800   3271.7963     -16502.195      1268.3157     -15233.879      982046.86      29914.612    
     34900   3174.7189     -16500.424      1230.6835     -15269.74       958598.48      29914.612    
     35000   3213.784      -16533.283      1245.8271     -15287.456      941310.49      29914.612    
     35100   2954.7842     -16525.679      1145.4256     -15380.253      928611.02      29914.612    
     35200   3015.9178     -16522.183      1169.1241     -15353.059      952665.1       29914.612    
     35300   3224.1966     -16531.375      1249.8636     -15281.511      938824.31      29914.612    
     35400   3012.8307     -16521.391      1167.9274     -15353.463      947105.59      29914.612    
     35500   3445.759      -16499.847      1335.7525     -15164.094      928470.11      29914.612    
     35600   3544.365      -16491.982      1373.9773     -15118.005      945825.34      29914.612    
     35700   3101.487      -16528.922      1202.2951     -15326.627      935364.64      29914.612    
     35800   3172.0327     -16522.882      1229.6422     -15293.24       927205.08      29914.612    
     35900   2909.7072     -16484.312      1127.9514     -15356.36       938651.96      29914.612    
     36000   2884.4142     -16519.026      1118.1466     -15400.879      933886.12      29914.612    
     36100   3192.3795     -16536.5        1237.5297     -15298.97       942215.68      29914.612    
     36200   3003.2299     -16528.875      1164.2056     -15364.669      931500.24      29914.612    
     36300   3161.0256     -16504.257      1225.3753     -15278.881      936858.7       29914.612    
     36400   3634.5598     -16481.069      1408.9414     -15072.128      943892.85      29914.612    
     36500   3619.461      -16526.358      1403.0883     -15123.27       948237.69      29914.612    
     36600   3190.4335     -16437.149      1236.7753     -15200.374      951578.11      29914.612    
     36700   3275.4375     -16524.71       1269.7272     -15254.983      939444.82      29914.612    
     36800   3034.1447     -16509.65       1176.1898     -15333.46       935083.67      29914.612    
     36900   3067.2215     -16553.175      1189.012      -15364.163      939881.72      29914.612    
     37000   3012.3848     -16530.346      1167.7545     -15362.591      912513.83      29914.612    
     37100   3263.3264     -16468.324      1265.0323     -15203.291      946882.32      29914.612    
     37200   3262.6809     -16426.303      1264.7821     -15161.521      961697.38      29914.612    
     37300   3007.2585     -16468.84       1165.7673     -15303.072      942663.17      29914.612    
     37400   3041.8538     -16554.516      1179.1782     -15375.338      929236.45      29914.612    
     37500   2996.8575     -16557.064      1161.7353     -15395.329      926782.95      29914.612    
     37600   3259.776      -16458.375      1263.656      -15194.719      947724.54      29914.612    
     37700   2994.8985     -16482.257      1160.9759     -15321.281      936785.01      29914.612    
     37800   2877.9452     -16483.091      1115.6388     -15367.452      933020.25      29914.612    
     37900   3144.2511     -16578.861      1218.8727     -15359.988      933231.02      29914.612    
     38000   3221.5118     -16448.654      1248.8228     -15199.831      963026.3       29914.612    
     38100   3333.1091     -16509.426      1292.0837     -15217.342      937042.66      29914.612    
     38200   3347.8031     -16510.856      1297.7798     -15213.076      953218.45      29914.612    
     38300   2922.5765     -16550.416      1132.9402     -15417.476      920364.67      29914.612    
     38400   3283.6688     -16522.434      1272.9181     -15249.516      921941.45      29914.612    
     38500   3034.7757     -16521.523      1176.4343     -15345.088      910499.28      29914.612    
     38600   2944.0167     -16590.671      1141.2515     -15449.419      910867.21      29914.612    
     38700   3174.978      -16482.717      1230.784      -15251.933      951967.75      29914.612    
     38800   3240.1761     -16557.678      1256.0581     -15301.62       925565.06      29914.612    
     38900   3291.6169     -16514.294      1275.9992     -15238.295      946868.15      29914.612    
     39000   2714.1285     -16595.864      1052.1351     -15543.729      916018.76      29914.612    
     39100   3007.9706     -16525.768      1166.0433     -15359.724      941297.37      29914.612    
     39200   2902.6226     -16487.286      1125.205      -15362.081      936218.33      29914.612    
     39300   3123.2751     -16518.364      1210.7413     -15307.623      936713.58      29914.612    
     39400   2926.7172     -16501.878      1134.5453     -15367.333      939420.19      29914.612    
     39500   3067.3077     -16499.906      1189.0454     -15310.861      929626.7       29914.612    
     39600   3094.0791     -16568.87       1199.4234     -15369.447      937953.01      29914.612    
     39700   2891.2842     -16567.153      1120.8097     -15446.343      906553.43      29914.612    
     39800   3306.1791     -16516.225      1281.6442     -15234.581      923180.7       29914.612    
     39900   3061.6055     -16502.967      1186.835      -15316.132      924523.06      29914.612    
     40000   3005.5643     -16567.121      1165.1105     -15402.01       915779.21      29914.612    
Loop time of 17898.4 on 1 procs for 40000 steps with 3000 atoms

Performance: 0.097 ns/day, 248.589 hours/ns, 2.235 timesteps/s, 6.704 katom-step/s
201.9% CPU use with 1 MPI tasks x no OpenMP threads

MPI task timing breakdown:
Section |  min time  |  avg time  |  max time  |%varavg| %total
---------------------------------------------------------------
Pair    | 17685      | 17685      | 17685      |   0.0 | 98.81
Neigh   | 188.99     | 188.99     | 188.99     |   0.0 |  1.06
Comm    | 1.3008     | 1.3008     | 1.3008     |   0.0 |  0.01
Output  | 0.039627   | 0.039627   | 0.039627   |   0.0 |  0.00
Modify  | 22.418     | 22.418     | 22.418     |   0.0 |  0.13
Other   |            | 0.3073     |            |       |  0.00

Nlocal:           3000 ave        3000 max        3000 min
Histogram: 1 0 0 0 0 0 0 0 0 0
Nghost:           6169 ave        6169 max        6169 min
Histogram: 1 0 0 0 0 0 0 0 0 0
Neighs:         222951 ave      222951 max      222951 min
Histogram: 1 0 0 0 0 0 0 0 0 0
FullNghs:       445902 ave      445902 max      445902 min
Histogram: 1 0 0 0 0 0 0 0 0 0

Total # of neighbors = 445902
Ave neighs/atom = 148.634
Neighbor list builds = 10317
Dangerous builds = 559
Total wall time: 8:35:56
